<?xml version="1.0" encoding="UTF-8"?>

<!-- generated on 2021-11-19 02:33:27 by Eclipse SUMO GUI Version 1.10.0
<configuration xmlns:xsi="http://www.w3.org/2001/XMLSchema-instance" xsi:noNamespaceSchemaLocation="http://sumo.dlr.de/xsd/sumoConfiguration.xsd">

    <input>
        <net-file value="configs/thesis.net.xml"/>
        <route-files value="configs/thesis.rou.xml"/>
        <additional-files value="configs/thesis.add.xml"/>
    </input>

    <output>
        <netstate-dump value="configs/../reports/temp_netstate-dump.xml"/>
        <fcd-output value="configs/../reports/temp_fcd.xml"/>
        <tripinfo-output value="reports/temp_tripinfo.xml"/>
        <collision-output value="reports/temp_collisions.xml"/>
    </output>

    <time>
        <begin value="0"/>
    </time>

    <processing>
        <lateral-resolution value="3"/>
        <collision.stoptime value="600"/>
        <time-to-teleport value="0"/>
    </processing>

    <report>
        <no-step-log value="true"/>
    </report>

    <traci_server>
        <remote-port value="53242"/>
    </traci_server>

    <gui_only>
        <gui-settings-file value="configs/../../globalConfigs/file.settings.xml"/>
    </gui_only>

</configuration>
-->

<fcd-export xmlns:xsi="http://www.w3.org/2001/XMLSchema-instance" xsi:noNamespaceSchemaLocation="http://sumo.dlr.de/xsd/fcd_file.xsd">
    <timestep time="0.00">
        <vehicle id="flow0.0" x="-998.49" y="-94.09" angle="90.60" type="Civilian" speed="0.00" pos="5.10" lane="edge0_0" slope="0.00"/>
    </timestep>
    <timestep time="1.00">
        <vehicle id="flow0.0" x="-997.41" y="-94.10" angle="90.60" type="Civilian" speed="1.14" pos="6.24" lane="edge0_0" slope="0.00"/>
    </timestep>
    <timestep time="2.00">
        <vehicle id="flow0.0" x="-994.93" y="-94.13" angle="90.60" type="Civilian" speed="2.62" pos="8.85" lane="edge0_0" slope="0.00"/>
    </timestep>
    <timestep time="3.00">
        <vehicle id="flow0.0" x="-990.65" y="-94.17" angle="90.60" type="Civilian" speed="4.50" pos="13.35" lane="edge0_0" slope="0.00"/>
        <vehicle id="flow1.0" x="-998.49" y="-94.09" angle="90.60" type="C_Civilian" speed="0.00" pos="5.10" lane="edge0_0" slope="0.00"/>
    </timestep>
    <timestep time="4.00">
        <vehicle id="flow0.0" x="-985.65" y="-94.23" angle="90.60" type="Civilian" speed="5.27" pos="18.62" lane="edge0_0" slope="0.00"/>
        <vehicle id="flow1.0" x="-998.29" y="-93.09" angle="79.72" type="C_Civilian" speed="0.20" pos="5.30" lane="edge0_0" slope="0.00"/>
    </timestep>
    <timestep time="5.00">
        <vehicle id="flow0.0" x="-978.86" y="-94.30" angle="90.60" type="Civilian" speed="7.15" pos="25.77" lane="edge0_0" slope="0.00"/>
        <vehicle id="flow1.0" x="-997.04" y="-92.11" angle="81.61" type="C_Civilian" speed="1.31" pos="6.61" lane="edge0_1" slope="0.00"/>
    </timestep>
    <timestep time="6.00">
        <vehicle id="flow0.0" x="-970.29" y="-94.39" angle="90.60" type="Civilian" speed="9.02" pos="34.79" lane="edge0_0" slope="0.00"/>
        <vehicle id="flow1.0" x="-993.48" y="-91.64" angle="87.33" type="C_Civilian" speed="3.74" pos="10.36" lane="edge0_1" slope="0.00"/>
    </timestep>
    <timestep time="7.00">
        <vehicle id="flow0.0" x="-959.77" y="-94.50" angle="90.60" type="Civilian" speed="11.06" pos="45.85" lane="edge0_0" slope="0.00"/>
        <vehicle id="flow1.0" x="-989.47" y="-90.99" angle="86.26" type="C_Civilian" speed="4.20" pos="14.56" lane="edge0_1" slope="0.00"/>
    </timestep>
    <timestep time="8.00">
        <vehicle id="flow0.0" x="-947.73" y="-94.63" angle="90.60" type="Civilian" speed="12.68" pos="58.53" lane="edge0_0" slope="0.00"/>
        <vehicle id="flow1.0" x="-982.94" y="-91.06" angle="90.60" type="C_Civilian" speed="6.88" pos="21.44" lane="edge0_1" slope="0.00"/>
    </timestep>
    <timestep time="9.00">
        <vehicle id="flow0.0" x="-935.15" y="-94.76" angle="90.60" type="Civilian" speed="13.24" pos="71.77" lane="edge0_0" slope="0.00"/>
        <vehicle id="flow0.1" x="-998.49" y="-94.09" angle="90.60" type="Civilian" speed="0.00" pos="5.10" lane="edge0_0" slope="0.00"/>
        <vehicle id="flow1.0" x="-975.09" y="-91.14" angle="90.60" type="C_Civilian" speed="8.26" pos="29.70" lane="edge0_1" slope="0.00"/>
    </timestep>
    <timestep time="10.00">
        <vehicle id="flow0.0" x="-911.34" y="-95.16" angle="91.14" type="Civilian" speed="13.37" pos="0.42" lane="edge1_0" slope="0.00"/>
        <vehicle id="flow0.1" x="-998.13" y="-94.09" angle="90.60" type="Civilian" speed="0.38" pos="5.48" lane="edge0_0" slope="0.00"/>
        <vehicle id="flow1.0" x="-965.01" y="-91.24" angle="90.60" type="C_Civilian" speed="10.61" pos="40.31" lane="edge0_1" slope="0.00"/>
    </timestep>
    <timestep time="11.00">
        <vehicle id="flow0.0" x="-900.94" y="-95.49" angle="91.83" type="Civilian" speed="13.47" pos="13.89" lane="edge1_0" slope="0.00"/>
        <vehicle id="flow0.1" x="-997.57" y="-94.10" angle="90.60" type="Civilian" speed="0.59" pos="6.08" lane="edge0_0" slope="0.00"/>
        <vehicle id="flow1.0" x="-953.67" y="-91.36" angle="90.60" type="C_Civilian" speed="11.93" pos="52.24" lane="edge0_1" slope="0.00"/>
    </timestep>
    <timestep time="12.00">
        <vehicle id="flow0.0" x="-890.67" y="-95.82" angle="91.83" type="Civilian" speed="13.31" pos="27.20" lane="edge1_0" slope="0.00"/>
        <vehicle id="flow0.1" x="-995.67" y="-94.12" angle="90.60" type="Civilian" speed="2.00" pos="8.07" lane="edge0_0" slope="0.00"/>
        <vehicle id="flow1.0" x="-943.71" y="-91.47" angle="90.60" type="C_Civilian" speed="10.48" pos="62.72" lane="edge0_1" slope="0.00"/>
    </timestep>
    <timestep time="13.00">
        <vehicle id="flow0.0" x="-879.38" y="-96.18" angle="91.83" type="Civilian" speed="14.63" pos="41.83" lane="edge1_0" slope="0.00"/>
        <vehicle id="flow0.1" x="-993.57" y="-94.14" angle="90.60" type="Civilian" speed="2.21" pos="10.28" lane="edge0_0" slope="0.00"/>
        <vehicle id="flow1.0" x="-933.07" y="-91.58" angle="90.60" type="C_Civilian" speed="11.20" pos="73.92" lane="edge0_1" slope="0.00"/>
    </timestep>
    <timestep time="14.00">
        <vehicle id="flow0.0" x="-869.50" y="-96.50" angle="91.83" type="Civilian" speed="12.81" pos="54.64" lane="edge1_0" slope="0.00"/>
        <vehicle id="flow0.1" x="-990.08" y="-94.18" angle="90.60" type="Civilian" speed="3.67" pos="13.95" lane="edge0_0" slope="0.00"/>
        <vehicle id="flow1.0" x="-923.03" y="-91.69" angle="90.60" type="C_Civilian" speed="10.57" pos="84.49" lane="edge0_1" slope="0.00"/>
        <vehicle id="flow1.1" x="-998.49" y="-94.09" angle="90.60" type="C_Civilian" speed="0.00" pos="5.10" lane="edge0_0" slope="0.00"/>
    </timestep>
    <timestep time="15.00">
        <vehicle id="flow0.0" x="-845.52" y="-97.03" angle="91.11" type="Civilian" speed="12.14" pos="3.98" lane="edge2_0" slope="0.00"/>
        <vehicle id="flow0.1" x="-984.73" y="-94.24" angle="90.60" type="Civilian" speed="5.64" pos="19.59" lane="edge0_0" slope="0.00"/>
        <vehicle id="flow1.0" x="-903.56" y="-92.21" angle="91.83" type="C_Civilian" speed="10.59" pos="10.36" lane="edge1_1" slope="0.00"/>
        <vehicle id="flow1.1" x="-998.07" y="-94.10" angle="90.60" type="C_Civilian" speed="0.45" pos="5.55" lane="edge0_0" slope="0.00"/>
    </timestep>
    <timestep time="16.00">
        <vehicle id="flow0.0" x="-834.78" y="-97.14" angle="90.57" type="Civilian" speed="13.67" pos="17.65" lane="edge2_0" slope="0.00"/>
        <vehicle id="flow0.1" x="-976.77" y="-94.32" angle="90.60" type="Civilian" speed="8.37" pos="27.96" lane="edge0_0" slope="0.00"/>
        <vehicle id="flow1.0" x="-895.47" y="-92.46" angle="91.83" type="C_Civilian" speed="10.48" pos="20.84" lane="edge1_1" slope="0.00"/>
        <vehicle id="flow1.1" x="-995.93" y="-94.12" angle="90.60" type="C_Civilian" speed="2.26" pos="7.80" lane="edge0_0" slope="0.00"/>
    </timestep>
    <timestep time="17.00">
        <vehicle id="flow0.0" x="-823.49" y="-97.25" angle="90.57" type="Civilian" speed="14.35" pos="32.01" lane="edge2_0" slope="0.00"/>
        <vehicle id="flow0.1" x="-967.71" y="-94.42" angle="90.60" type="Civilian" speed="9.53" pos="37.50" lane="edge0_0" slope="0.00"/>
        <vehicle id="flow1.0" x="-885.42" y="-92.79" angle="91.83" type="C_Civilian" speed="13.03" pos="33.87" lane="edge1_1" slope="0.00"/>
        <vehicle id="flow1.1" x="-993.52" y="-93.14" angle="83.03" type="C_Civilian" speed="2.52" pos="10.32" lane="edge0_0" slope="0.00"/>
    </timestep>
    <timestep time="18.00">
        <vehicle id="flow0.0" x="-813.26" y="-97.35" angle="90.57" type="Civilian" speed="13.03" pos="45.03" lane="edge2_0" slope="0.00"/>
        <vehicle id="flow0.1" x="-955.97" y="-94.54" angle="90.60" type="Civilian" speed="12.36" pos="49.86" lane="edge0_0" slope="0.00"/>
        <vehicle id="flow0.2" x="-998.49" y="-94.09" angle="90.60" type="Civilian" speed="0.00" pos="5.10" lane="edge0_0" slope="0.00"/>
        <vehicle id="flow1.0" x="-876.09" y="-93.08" angle="91.83" type="C_Civilian" speed="12.10" pos="45.97" lane="edge1_1" slope="0.00"/>
        <vehicle id="flow1.1" x="-990.22" y="-92.18" angle="83.86" type="C_Civilian" speed="3.46" pos="13.78" lane="edge0_1" slope="0.00"/>
    </timestep>
    <timestep time="19.00">
        <vehicle id="flow0.0" x="-804.01" y="-97.44" angle="90.57" type="Civilian" speed="11.77" pos="56.80" lane="edge2_0" slope="0.00"/>
        <vehicle id="flow0.1" x="-942.64" y="-94.68" angle="90.60" type="Civilian" speed="14.03" pos="63.88" lane="edge0_0" slope="0.00"/>
        <vehicle id="flow0.2" x="-997.84" y="-94.10" angle="90.60" type="Civilian" speed="0.69" pos="5.79" lane="edge0_0" slope="0.00"/>
        <vehicle id="flow1.0" x="-866.33" y="-93.40" angle="91.83" type="C_Civilian" speed="12.65" pos="58.62" lane="edge1_1" slope="0.00"/>
        <vehicle id="flow1.1" x="-986.26" y="-91.72" angle="87.48" type="C_Civilian" speed="4.17" pos="17.95" lane="edge0_1" slope="0.00"/>
    </timestep>
    <timestep time="20.00">
        <vehicle id="flow0.0" x="-798.43" y="-97.50" angle="90.57" type="Civilian" speed="7.10" pos="63.90" lane="edge2_0" slope="0.00"/>
        <vehicle id="flow0.1" x="-929.44" y="-94.82" angle="90.60" type="Civilian" speed="13.89" pos="77.78" lane="edge0_0" slope="0.00"/>
        <vehicle id="flow0.2" x="-995.17" y="-94.13" angle="90.60" type="Civilian" speed="2.81" pos="8.60" lane="edge0_0" slope="0.00"/>
        <vehicle id="flow1.0" x="-842.64" y="-93.86" angle="90.57" type="C_Civilian" speed="11.80" pos="7.61" lane="edge2_1" slope="0.00"/>
        <vehicle id="flow1.1" x="-979.84" y="-91.09" angle="87.20" type="C_Civilian" speed="6.74" pos="24.70" lane="edge0_1" slope="0.00"/>
    </timestep>
    <timestep time="21.00">
        <vehicle id="flow0.0" x="-797.21" y="-97.51" angle="90.57" type="Civilian" speed="1.55" pos="65.46" lane="edge2_0" slope="0.00"/>
        <vehicle id="flow0.1" x="-907.89" y="-95.27" angle="91.45" type="Civilian" speed="11.84" pos="4.89" lane="edge1_0" slope="0.00"/>
        <vehicle id="flow0.2" x="-990.38" y="-94.18" angle="90.60" type="Civilian" speed="5.03" pos="13.63" lane="edge0_0" slope="0.00"/>
        <vehicle id="flow1.0" x="-832.55" y="-93.96" angle="90.57" type="C_Civilian" speed="12.83" pos="20.44" lane="edge2_1" slope="0.00"/>
        <vehicle id="flow1.1" x="-971.51" y="-91.18" angle="90.60" type="C_Civilian" speed="8.77" pos="33.46" lane="edge0_1" slope="0.00"/>
    </timestep>
    <timestep time="22.00">
        <vehicle id="flow0.0" x="-797.17" y="-97.51" angle="90.57" type="Civilian" speed="0.04" pos="65.50" lane="edge2_0" slope="0.00"/>
        <vehicle id="flow0.1" x="-898.61" y="-95.57" angle="91.83" type="Civilian" speed="12.02" pos="16.91" lane="edge1_0" slope="0.00"/>
        <vehicle id="flow0.2" x="-985.32" y="-94.23" angle="90.60" type="Civilian" speed="5.33" pos="18.97" lane="edge0_0" slope="0.00"/>
        <vehicle id="flow1.0" x="-823.08" y="-94.05" angle="90.57" type="C_Civilian" speed="12.05" pos="32.49" lane="edge2_1" slope="0.00"/>
        <vehicle id="flow1.1" x="-961.52" y="-91.28" angle="90.60" type="C_Civilian" speed="10.52" pos="43.98" lane="edge0_1" slope="0.00"/>
    </timestep>
    <timestep time="23.00">
        <vehicle id="flow0.0" x="-797.12" y="-97.51" angle="90.57" type="Civilian" speed="0.06" pos="65.56" lane="edge2_0" slope="0.00"/>
        <vehicle id="flow0.1" x="-889.37" y="-95.86" angle="91.83" type="Civilian" speed="11.97" pos="28.88" lane="edge1_0" slope="0.00"/>
        <vehicle id="flow0.2" x="-977.79" y="-94.31" angle="90.60" type="Civilian" speed="7.93" pos="26.89" lane="edge0_0" slope="0.00"/>
        <vehicle id="flow1.0" x="-814.95" y="-94.13" angle="90.57" type="C_Civilian" speed="10.35" pos="42.85" lane="edge2_1" slope="0.00"/>
        <vehicle id="flow1.1" x="-950.39" y="-91.40" angle="90.60" type="C_Civilian" speed="11.71" pos="55.69" lane="edge0_1" slope="0.00"/>
    </timestep>
    <timestep time="24.00">
        <vehicle id="flow0.0" x="-797.12" y="-97.51" angle="90.57" type="Civilian" speed="0.00" pos="65.57" lane="edge2_0" slope="0.00"/>
        <vehicle id="flow0.1" x="-880.59" y="-96.14" angle="91.83" type="Civilian" speed="11.38" pos="40.26" lane="edge1_0" slope="0.00"/>
        <vehicle id="flow0.2" x="-968.98" y="-94.40" angle="90.60" type="Civilian" speed="9.26" pos="36.16" lane="edge0_0" slope="0.00"/>
        <vehicle id="flow1.0" x="-805.08" y="-94.23" angle="90.57" type="C_Civilian" speed="12.56" pos="55.40" lane="edge2_1" slope="0.00"/>
        <vehicle id="flow1.1" x="-936.50" y="-91.55" angle="90.60" type="C_Civilian" speed="14.61" pos="70.31" lane="edge0_1" slope="0.00"/>
        <vehicle id="flow1.2" x="-998.49" y="-94.09" angle="90.60" type="C_Civilian" speed="0.00" pos="5.10" lane="edge0_0" slope="0.00"/>
    </timestep>
    <timestep time="25.00">
        <vehicle id="flow0.0" x="-797.12" y="-97.51" angle="90.57" type="Civilian" speed="0.00" pos="65.57" lane="edge2_0" slope="0.00"/>
        <vehicle id="flow0.1" x="-871.17" y="-95.44" angle="88.50" type="Civilian" speed="12.17" pos="52.43" lane="edge1_0" slope="0.00"/>
        <vehicle id="flow0.2" x="-957.52" y="-94.52" angle="90.60" type="Civilian" speed="12.07" pos="48.23" lane="edge0_0" slope="0.00"/>
        <vehicle id="flow1.0" x="-799.92" y="-94.28" angle="90.57" type="C_Civilian" speed="6.56" pos="61.96" lane="edge2_1" slope="0.00"/>
        <vehicle id="flow1.1" x="-924.28" y="-91.67" angle="90.60" type="C_Civilian" speed="12.86" pos="83.17" lane="edge0_1" slope="0.00"/>
        <vehicle id="flow1.2" x="-997.48" y="-94.10" angle="90.60" type="C_Civilian" speed="1.06" pos="6.16" lane="edge0_0" slope="0.00"/>
    </timestep>
    <timestep time="26.00">
        <vehicle id="flow0.0" x="-797.12" y="-97.51" angle="90.57" type="Civilian" speed="0.00" pos="65.57" lane="edge2_0" slope="0.00"/>
        <vehicle id="flow0.1" x="-846.59" y="-96.02" angle="91.18" type="Civilian" speed="12.98" pos="2.61" lane="edge2_0" slope="0.00"/>
        <vehicle id="flow0.2" x="-944.06" y="-94.67" angle="90.60" type="Civilian" speed="14.16" pos="62.39" lane="edge0_0" slope="0.00"/>
        <vehicle id="flow1.0" x="-798.47" y="-94.30" angle="90.57" type="C_Civilian" speed="1.85" pos="63.81" lane="edge2_1" slope="0.00"/>
        <vehicle id="flow1.1" x="-902.56" y="-92.24" angle="91.83" type="C_Civilian" speed="13.21" pos="11.65" lane="edge1_1" slope="0.00"/>
        <vehicle id="flow1.2" x="-995.19" y="-94.13" angle="90.60" type="C_Civilian" speed="2.42" pos="8.58" lane="edge0_0" slope="0.00"/>
    </timestep>
    <timestep time="27.00">
        <vehicle id="flow0.0" x="-797.12" y="-97.51" angle="90.57" type="Civilian" speed="0.00" pos="65.57" lane="edge2_0" slope="0.00"/>
        <vehicle id="flow0.1" x="-837.00" y="-97.12" angle="93.90" type="Civilian" speed="12.21" pos="14.82" lane="edge2_0" slope="0.00"/>
        <vehicle id="flow0.2" x="-931.48" y="-94.80" angle="90.60" type="Civilian" speed="13.24" pos="75.62" lane="edge0_0" slope="0.00"/>
        <vehicle id="flow1.0" x="-797.70" y="-94.31" angle="90.57" type="C_Civilian" speed="0.99" pos="64.79" lane="edge2_1" slope="0.00"/>
        <vehicle id="flow1.1" x="-891.26" y="-92.60" angle="91.83" type="C_Civilian" speed="14.65" pos="26.30" lane="edge1_1" slope="0.00"/>
        <vehicle id="flow1.2" x="-992.69" y="-94.15" angle="90.60" type="C_Civilian" speed="2.62" pos="11.20" lane="edge0_0" slope="0.00"/>
    </timestep>
    <timestep time="28.00">
        <vehicle id="flow0.0" x="-797.12" y="-97.51" angle="90.57" type="Civilian" speed="0.00" pos="65.57" lane="edge2_0" slope="0.00"/>
        <vehicle id="flow0.1" x="-826.89" y="-97.22" angle="90.57" type="Civilian" speed="12.87" pos="27.69" lane="edge2_0" slope="0.00"/>
        <vehicle id="flow0.2" x="-908.36" y="-95.26" angle="91.41" type="Civilian" speed="13.38" pos="4.28" lane="edge1_0" slope="0.00"/>
        <vehicle id="flow0.3" x="-998.49" y="-94.09" angle="90.60" type="Civilian" speed="0.00" pos="5.10" lane="edge0_0" slope="0.00"/>
        <vehicle id="flow1.0" x="-797.40" y="-94.31" angle="90.57" type="C_Civilian" speed="0.37" pos="65.16" lane="edge2_1" slope="0.00"/>
        <vehicle id="flow1.1" x="-881.56" y="-92.91" angle="91.83" type="C_Civilian" speed="12.57" pos="38.87" lane="edge1_1" slope="0.00"/>
        <vehicle id="flow1.2" x="-988.04" y="-94.20" angle="90.60" type="C_Civilian" speed="4.90" pos="16.10" lane="edge0_0" slope="0.00"/>
    </timestep>
    <timestep time="29.00">
        <vehicle id="flow0.0" x="-797.12" y="-97.51" angle="90.57" type="Civilian" speed="0.00" pos="65.57" lane="edge2_0" slope="0.00"/>
        <vehicle id="flow0.1" x="-815.89" y="-97.33" angle="90.57" type="Civilian" speed="13.99" pos="41.68" lane="edge2_0" slope="0.00"/>
        <vehicle id="flow0.2" x="-899.39" y="-95.54" angle="91.83" type="Civilian" speed="11.62" pos="15.90" lane="edge1_0" slope="0.00"/>
        <vehicle id="flow0.3" x="-996.86" y="-94.11" angle="90.60" type="Civilian" speed="1.72" pos="6.82" lane="edge0_0" slope="0.00"/>
        <vehicle id="flow1.0" x="-797.17" y="-94.31" angle="90.57" type="C_Civilian" speed="0.30" pos="65.46" lane="edge2_1" slope="0.00"/>
        <vehicle id="flow1.1" x="-872.06" y="-93.21" angle="91.83" type="C_Civilian" speed="12.31" pos="51.18" lane="edge1_1" slope="0.00"/>
        <vehicle id="flow1.2" x="-981.33" y="-94.27" angle="90.60" type="C_Civilian" speed="7.07" pos="23.17" lane="edge0_0" slope="0.00"/>
    </timestep>
    <timestep time="30.00">
        <vehicle id="flow0.0" x="-780.79" y="-97.45" angle="89.86" type="Civilian" speed="2.68" pos="1.68" lane="edge3_0" slope="0.00"/>
        <vehicle id="flow0.1" x="-809.31" y="-97.39" angle="90.57" type="Civilian" speed="8.37" pos="50.05" lane="edge2_0" slope="0.00"/>
        <vehicle id="flow0.2" x="-889.33" y="-95.86" angle="91.83" type="Civilian" speed="13.04" pos="28.94" lane="edge1_0" slope="0.00"/>
        <vehicle id="flow0.3" x="-993.24" y="-93.15" angle="84.12" type="Civilian" speed="3.79" pos="10.61" lane="edge0_0" slope="0.00"/>
        <vehicle id="flow1.0" x="-780.56" y="-94.25" angle="89.86" type="C_Civilian" speed="3.14" pos="2.03" lane="edge3_1" slope="0.00"/>
        <vehicle id="flow1.1" x="-847.00" y="-93.82" angle="91.21" type="C_Civilian" speed="13.68" pos="2.06" lane="edge2_1" slope="0.00"/>
        <vehicle id="flow1.2" x="-972.62" y="-94.36" angle="90.60" type="C_Civilian" speed="9.16" pos="32.33" lane="edge0_0" slope="0.00"/>
    </timestep>
    <timestep time="31.00">
        <vehicle id="flow0.0" x="-777.39" y="-97.39" angle="89.08" type="Civilian" speed="4.33" pos="6.01" lane="edge3_0" slope="0.00"/>
        <vehicle id="flow0.1" x="-804.69" y="-97.44" angle="90.57" type="Civilian" speed="5.87" pos="55.93" lane="edge2_0" slope="0.00"/>
        <vehicle id="flow0.2" x="-879.72" y="-96.17" angle="91.83" type="Civilian" speed="12.46" pos="41.40" lane="edge1_0" slope="0.00"/>
        <vehicle id="flow0.3" x="-989.21" y="-92.19" angle="84.43" type="Civilian" speed="4.24" pos="14.85" lane="edge0_1" slope="0.00"/>
        <vehicle id="flow1.0" x="-777.81" y="-94.21" angle="89.06" type="C_Civilian" speed="3.51" pos="5.53" lane="edge3_1" slope="0.00"/>
        <vehicle id="flow1.1" x="-835.33" y="-93.93" angle="90.57" type="C_Civilian" speed="14.85" pos="16.91" lane="edge2_1" slope="0.00"/>
        <vehicle id="flow1.2" x="-962.65" y="-94.47" angle="90.60" type="C_Civilian" speed="10.50" pos="42.82" lane="edge0_0" slope="0.00"/>
    </timestep>
    <timestep time="32.00">
        <vehicle id="flow0.0" x="-773.54" y="-97.33" angle="89.08" type="Civilian" speed="4.91" pos="10.92" lane="edge3_0" slope="0.00"/>
        <vehicle id="flow0.1" x="-800.32" y="-96.48" angle="85.16" type="Civilian" speed="5.55" pos="61.48" lane="edge2_0" slope="0.00"/>
        <vehicle id="flow0.2" x="-870.64" y="-96.46" angle="91.83" type="Civilian" speed="11.76" pos="53.15" lane="edge1_0" slope="0.00"/>
        <vehicle id="flow0.3" x="-983.32" y="-91.75" angle="88.04" type="Civilian" speed="6.19" pos="21.04" lane="edge0_1" slope="0.00"/>
        <vehicle id="flow1.0" x="-773.66" y="-94.14" angle="89.06" type="C_Civilian" speed="5.29" pos="10.82" lane="edge3_1" slope="0.00"/>
        <vehicle id="flow1.1" x="-825.10" y="-94.03" angle="90.57" type="C_Civilian" speed="13.01" pos="29.92" lane="edge2_1" slope="0.00"/>
        <vehicle id="flow1.2" x="-953.68" y="-94.56" angle="90.60" type="C_Civilian" speed="9.44" pos="52.26" lane="edge0_0" slope="0.00"/>
    </timestep>
    <timestep time="33.00">
        <vehicle id="flow0.0" x="-768.35" y="-97.25" angle="89.08" type="Civilian" speed="6.61" pos="17.53" lane="edge3_0" slope="0.00"/>
        <vehicle id="flow0.1" x="-780.63" y="-96.45" angle="89.84" type="Civilian" speed="6.98" pos="1.89" lane="edge3_0" slope="0.00"/>
        <vehicle id="flow0.2" x="-846.43" y="-97.02" angle="91.17" type="Civilian" speed="12.46" pos="2.82" lane="edge2_0" slope="0.00"/>
        <vehicle id="flow0.3" x="-976.64" y="-91.12" angle="87.28" type="Civilian" speed="7.03" pos="28.07" lane="edge0_1" slope="0.00"/>
        <vehicle id="flow1.0" x="-768.81" y="-94.06" angle="89.06" type="C_Civilian" speed="6.19" pos="17.01" lane="edge3_1" slope="0.00"/>
        <vehicle id="flow1.1" x="-815.12" y="-94.13" angle="90.57" type="C_Civilian" speed="12.71" pos="42.63" lane="edge2_1" slope="0.00"/>
        <vehicle id="flow1.2" x="-944.45" y="-94.66" angle="90.60" type="C_Civilian" speed="9.71" pos="61.97" lane="edge0_0" slope="0.00"/>
    </timestep>
    <timestep time="34.00">
        <vehicle id="flow0.0" x="-762.74" y="-97.16" angle="89.08" type="Civilian" speed="7.16" pos="24.69" lane="edge3_0" slope="0.00"/>
        <vehicle id="flow0.1" x="-777.30" y="-95.40" angle="82.91" type="Civilian" speed="4.27" pos="6.16" lane="edge3_1" slope="0.00"/>
        <vehicle id="flow0.2" x="-835.19" y="-97.13" angle="90.57" type="Civilian" speed="14.30" pos="17.12" lane="edge2_0" slope="0.00"/>
        <vehicle id="flow0.3" x="-968.45" y="-91.21" angle="90.60" type="Civilian" speed="8.62" pos="36.69" lane="edge0_1" slope="0.00"/>
        <vehicle id="flow1.0" x="-762.39" y="-93.96" angle="89.06" type="C_Civilian" speed="8.20" pos="25.20" lane="edge3_1" slope="0.00"/>
        <vehicle id="flow1.1" x="-807.53" y="-94.21" angle="90.57" type="C_Civilian" speed="9.65" pos="52.28" lane="edge2_1" slope="0.00"/>
        <vehicle id="flow1.2" x="-935.24" y="-94.76" angle="90.60" type="C_Civilian" speed="9.70" pos="71.67" lane="edge0_0" slope="0.00"/>
    </timestep>
    <timestep time="35.00">
        <vehicle id="flow0.0" x="-756.04" y="-97.05" angle="89.08" type="Civilian" speed="8.53" pos="33.23" lane="edge3_0" slope="0.00"/>
        <vehicle id="flow0.1" x="-773.13" y="-94.83" angle="86.29" type="Civilian" speed="5.32" pos="11.49" lane="edge3_1" slope="0.00"/>
        <vehicle id="flow0.2" x="-825.43" y="-97.23" angle="90.57" type="Civilian" speed="12.43" pos="29.55" lane="edge2_0" slope="0.00"/>
        <vehicle id="flow0.3" x="-960.05" y="-91.30" angle="90.60" type="Civilian" speed="8.84" pos="45.53" lane="edge0_1" slope="0.00"/>
        <vehicle id="flow1.0" x="-753.98" y="-93.82" angle="89.06" type="C_Civilian" speed="10.72" pos="35.92" lane="edge3_1" slope="0.00"/>
        <vehicle id="flow1.1" x="-801.20" y="-94.27" angle="90.57" type="C_Civilian" speed="8.05" pos="60.33" lane="edge2_1" slope="0.00"/>
        <vehicle id="flow1.2" x="-924.50" y="-94.87" angle="90.60" type="C_Civilian" speed="11.30" pos="82.97" lane="edge0_0" slope="0.00"/>
    </timestep>
    <timestep time="36.00">
        <vehicle id="flow0.0" x="-747.59" y="-96.91" angle="89.08" type="Civilian" speed="10.78" pos="44.01" lane="edge3_0" slope="0.00"/>
        <vehicle id="flow0.1" x="-766.77" y="-94.03" angle="86.01" type="Civilian" speed="8.12" pos="19.61" lane="edge3_1" slope="0.00"/>
        <vehicle id="flow0.2" x="-816.37" y="-97.32" angle="90.57" type="Civilian" speed="11.53" pos="41.08" lane="edge2_0" slope="0.00"/>
        <vehicle id="flow0.3" x="-951.23" y="-91.39" angle="90.60" type="Civilian" speed="9.28" pos="54.81" lane="edge0_1" slope="0.00"/>
        <vehicle id="flow0.4" x="-998.49" y="-94.09" angle="90.60" type="Civilian" speed="0.00" pos="5.10" lane="edge0_0" slope="0.00"/>
        <vehicle id="flow1.0" x="-745.82" y="-93.69" angle="89.06" type="C_Civilian" speed="10.41" pos="46.33" lane="edge3_1" slope="0.00"/>
        <vehicle id="flow1.1" x="-781.70" y="-94.27" angle="89.96" type="C_Civilian" speed="6.81" pos="0.57" lane="edge3_1" slope="0.00"/>
        <vehicle id="flow1.2" x="-906.14" y="-95.33" angle="91.83" type="C_Civilian" speed="8.90" pos="7.15" lane="edge1_0" slope="0.00"/>
    </timestep>
    <timestep time="37.00">
        <vehicle id="flow0.0" x="-737.33" y="-96.75" angle="89.08" type="Civilian" speed="13.08" pos="57.09" lane="edge3_0" slope="0.00"/>
        <vehicle id="flow0.1" x="-758.63" y="-93.90" angle="89.06" type="Civilian" speed="10.38" pos="29.99" lane="edge3_1" slope="0.00"/>
        <vehicle id="flow0.2" x="-806.29" y="-97.42" angle="90.57" type="Civilian" speed="12.82" pos="53.90" lane="edge2_0" slope="0.00"/>
        <vehicle id="flow0.3" x="-941.67" y="-91.49" angle="90.60" type="Civilian" speed="10.07" pos="64.87" lane="edge0_1" slope="0.00"/>
        <vehicle id="flow0.4" x="-995.71" y="-94.12" angle="90.60" type="Civilian" speed="2.93" pos="8.03" lane="edge0_0" slope="0.00"/>
        <vehicle id="flow1.0" x="-735.71" y="-93.52" angle="89.06" type="C_Civilian" speed="12.89" pos="59.22" lane="edge3_1" slope="0.00"/>
        <vehicle id="flow1.1" x="-774.60" y="-94.16" angle="89.06" type="C_Civilian" speed="9.06" pos="9.63" lane="edge3_1" slope="0.00"/>
        <vehicle id="flow1.2" x="-898.93" y="-95.56" angle="91.83" type="C_Civilian" speed="9.34" pos="16.49" lane="edge1_0" slope="0.00"/>
    </timestep>
    <timestep time="38.00">
        <vehicle id="flow0.0" x="-714.65" y="-96.59" angle="89.84" type="Civilian" speed="13.80" pos="3.70" lane="edge4_0" slope="0.00"/>
        <vehicle id="flow0.1" x="-749.67" y="-93.75" angle="89.06" type="Civilian" speed="11.43" pos="41.42" lane="edge3_1" slope="0.00"/>
        <vehicle id="flow0.2" x="-781.67" y="-97.46" angle="89.93" type="Civilian" speed="13.21" pos="0.54" lane="edge3_0" slope="0.00"/>
        <vehicle id="flow0.3" x="-930.41" y="-91.61" angle="90.60" type="Civilian" speed="11.85" pos="76.72" lane="edge0_1" slope="0.00"/>
        <vehicle id="flow0.4" x="-992.00" y="-94.16" angle="90.60" type="Civilian" speed="3.90" pos="11.93" lane="edge0_0" slope="0.00"/>
        <vehicle id="flow1.0" x="-714.59" y="-93.39" angle="89.84" type="C_Civilian" speed="11.69" pos="3.73" lane="edge4_1" slope="0.00"/>
        <vehicle id="flow1.1" x="-766.28" y="-94.02" angle="89.06" type="C_Civilian" speed="10.61" pos="20.24" lane="edge3_1" slope="0.00"/>
        <vehicle id="flow1.2" x="-892.02" y="-95.78" angle="91.83" type="C_Civilian" speed="8.96" pos="25.45" lane="edge1_0" slope="0.00"/>
    </timestep>
    <timestep time="39.00">
        <vehicle id="flow0.0" x="-703.46" y="-96.72" angle="90.68" type="Civilian" speed="11.96" pos="15.67" lane="edge4_0" slope="0.00"/>
        <vehicle id="flow0.1" x="-740.27" y="-93.60" angle="89.06" type="Civilian" speed="11.98" pos="53.40" lane="edge3_1" slope="0.00"/>
        <vehicle id="flow0.2" x="-770.74" y="-97.29" angle="89.08" type="Civilian" speed="13.94" pos="14.49" lane="edge3_0" slope="0.00"/>
        <vehicle id="flow0.3" x="-907.56" y="-92.08" angle="91.83" type="Civilian" speed="13.16" pos="5.17" lane="edge1_1" slope="0.00"/>
        <vehicle id="flow0.4" x="-986.46" y="-94.22" angle="90.60" type="Civilian" speed="5.83" pos="17.76" lane="edge0_0" slope="0.00"/>
        <vehicle id="flow1.0" x="-704.21" y="-93.51" angle="90.68" type="C_Civilian" speed="11.09" pos="14.82" lane="edge4_1" slope="0.00"/>
        <vehicle id="flow1.1" x="-758.54" y="-93.89" angle="89.06" type="C_Civilian" speed="9.86" pos="30.10" lane="edge3_1" slope="0.00"/>
        <vehicle id="flow1.2" x="-883.18" y="-96.06" angle="91.83" type="C_Civilian" speed="11.46" pos="36.91" lane="edge1_0" slope="0.00"/>
        <vehicle id="flow1.3" x="-998.49" y="-94.09" angle="90.60" type="C_Civilian" speed="0.00" pos="5.10" lane="edge0_0" slope="0.00"/>
    </timestep>
    <timestep time="40.00">
        <vehicle id="flow0.0" x="-690.79" y="-96.87" angle="90.68" type="Civilian" speed="13.54" pos="29.21" lane="edge4_0" slope="0.00"/>
        <vehicle id="flow0.1" x="-730.41" y="-93.44" angle="89.06" type="Civilian" speed="12.58" pos="65.98" lane="edge3_1" slope="0.00"/>
        <vehicle id="flow0.2" x="-761.14" y="-97.13" angle="89.08" type="Civilian" speed="12.24" pos="26.73" lane="edge3_0" slope="0.00"/>
        <vehicle id="flow0.3" x="-898.47" y="-92.37" angle="91.83" type="Civilian" speed="11.79" pos="16.95" lane="edge1_1" slope="0.00"/>