<?xml version="1.0" encoding="UTF-8"?>

<!-- generated on 2021-11-19 02:33:27 by Eclipse SUMO GUI Version 1.10.0
<configuration xmlns:xsi="http://www.w3.org/2001/XMLSchema-instance" xsi:noNamespaceSchemaLocation="http://sumo.dlr.de/xsd/sumoConfiguration.xsd">

    <input>
        <net-file value="configs/thesis.net.xml"/>
        <route-files value="configs/thesis.rou.xml"/>
        <additional-files value="configs/thesis.add.xml"/>
    </input>

    <output>
        <netstate-dump value="configs/../reports/temp_netstate-dump.xml"/>
        <fcd-output value="configs/../reports/temp_fcd.xml"/>
        <tripinfo-output value="reports/temp_tripinfo.xml"/>
        <collision-output value="reports/temp_collisions.xml"/>
    </output>

    <time>
        <begin value="0"/>
    </time>

    <processing>
        <lateral-resolution value="3"/>
        <collision.stoptime value="600"/>
        <time-to-teleport value="0"/>
    </processing>

    <report>
        <no-step-log value="true"/>
    </report>

    <traci_server>
        <remote-port value="53242"/>
    </traci_server>

    <gui_only>
        <gui-settings-file value="configs/../../globalConfigs/file.settings.xml"/>
    </gui_only>

</configuration>
-->

<netstate xmlns:xsi="http://www.w3.org/2001/XMLSchema-instance" xsi:noNamespaceSchemaLocation="http://sumo.dlr.de/xsd/netstate_file.xsd">
    <timestep time="0.00">
        <edge id="edge0">
            <lane id="edge0_0">
                <vehicle id="flow0.0" pos="5.10" speed="0.00" posLat="0.00" speedLat="0.00"/>
            </lane>
            <lane id="edge0_1"/>
        </edge>
    </timestep>
    <timestep time="1.00">
        <edge id="edge0">
            <lane id="edge0_0">
                <vehicle id="flow0.0" pos="6.24" speed="1.14" posLat="0.00" speedLat="0.00"/>
            </lane>
            <lane id="edge0_1"/>
        </edge>
    </timestep>
    <timestep time="2.00">
        <edge id="edge0">
            <lane id="edge0_0">
                <vehicle id="flow0.0" pos="8.85" speed="2.62" posLat="0.00" speedLat="0.00"/>
            </lane>
            <lane id="edge0_1"/>
        </edge>
    </timestep>
    <timestep time="3.00">
        <edge id="edge0">
            <lane id="edge0_0">
                <vehicle id="flow1.0" pos="5.10" speed="0.00" posLat="0.00" speedLat="0.00"/>
                <vehicle id="flow0.0" pos="13.35" speed="4.50" posLat="0.00" speedLat="0.00"/>
            </lane>
            <lane id="edge0_1"/>
        </edge>
    </timestep>
    <timestep time="4.00">
        <edge id="edge0">
            <lane id="edge0_0">
                <vehicle id="flow1.0" pos="5.30" speed="0.20" posLat="1.00" speedLat="1.00"/>
                <vehicle id="flow0.0" pos="18.62" speed="5.27" posLat="0.00" speedLat="0.00"/>
            </lane>
            <lane id="edge0_1"/>
        </edge>
    </timestep>
    <timestep time="5.00">
        <edge id="edge0">
            <lane id="edge0_0">
                <vehicle id="flow0.0" pos="25.77" speed="7.15" posLat="0.00" speedLat="0.00"/>
            </lane>
            <lane id="edge0_1">
                <vehicle id="flow1.0" pos="6.61" speed="1.31" posLat="-1.20" speedLat="1.00"/>
            </lane>
        </edge>
    </timestep>
    <timestep time="6.00">
        <edge id="edge0">
            <lane id="edge0_0">
                <vehicle id="flow0.0" pos="34.79" speed="9.02" posLat="0.00" speedLat="0.00"/>
            </lane>
            <lane id="edge0_1">
                <vehicle id="flow1.0" pos="10.36" speed="3.74" posLat="-0.70" speedLat="0.50"/>
            </lane>
        </edge>
    </timestep>
    <timestep time="7.00">
        <edge id="edge0">
            <lane id="edge0_0">
                <vehicle id="flow0.0" pos="45.85" speed="11.06" posLat="0.00" speedLat="0.00"/>
            </lane>
            <lane id="edge0_1">
                <vehicle id="flow1.0" pos="14.56" speed="4.20" posLat="0.00" speedLat="0.70"/>
            </lane>
        </edge>
    </timestep>
    <timestep time="8.00">
        <edge id="edge0">
            <lane id="edge0_0">
                <vehicle id="flow0.0" pos="58.53" speed="12.68" posLat="0.00" speedLat="0.00"/>
            </lane>
            <lane id="edge0_1">
                <vehicle id="flow1.0" pos="21.44" speed="6.88" posLat="0.00" speedLat="0.00"/>
            </lane>
        </edge>
    </timestep>
    <timestep time="9.00">
        <edge id="edge0">
            <lane id="edge0_0">
                <vehicle id="flow0.1" pos="5.10" speed="0.00" posLat="0.00" speedLat="0.00"/>
                <vehicle id="flow0.0" pos="71.77" speed="13.24" posLat="0.00" speedLat="0.00"/>
            </lane>
            <lane id="edge0_1">
                <vehicle id="flow1.0" pos="29.70" speed="8.26" posLat="0.00" speedLat="0.00"/>
            </lane>
        </edge>
    </timestep>
    <timestep time="10.00">
        <edge id="edge0">
            <lane id="edge0_0">
                <vehicle id="flow0.1" pos="5.48" speed="0.38" posLat="0.00" speedLat="0.00"/>
            </lane>
            <lane id="edge0_1">
                <vehicle id="flow1.0" pos="40.31" speed="10.61" posLat="0.00" speedLat="0.00"/>
            </lane>
        </edge>
        <edge id="edge1">
            <lane id="edge1_0">
                <vehicle id="flow0.0" pos="0.42" speed="13.37" posLat="0.00" speedLat="0.00"/>
            </lane>
            <lane id="edge1_1"/>
        </edge>
    </timestep>
    <timestep time="11.00">
        <edge id="edge0">
            <lane id="edge0_0">
                <vehicle id="flow0.1" pos="6.08" speed="0.59" posLat="0.00" speedLat="0.00"/>
            </lane>
            <lane id="edge0_1">
                <vehicle id="flow1.0" pos="52.24" speed="11.93" posLat="0.00" speedLat="0.00"/>
            </lane>
        </edge>
        <edge id="edge1">
            <lane id="edge1_0">
                <vehicle id="flow0.0" pos="13.89" speed="13.47" posLat="0.00" speedLat="0.00"/>
            </lane>
            <lane id="edge1_1"/>
        </edge>
    </timestep>
    <timestep time="12.00">
        <edge id="edge0">
            <lane id="edge0_0">
                <vehicle id="flow0.1" pos="8.07" speed="2.00" posLat="0.00" speedLat="0.00"/>
            </lane>
            <lane id="edge0_1">
                <vehicle id="flow1.0" pos="62.72" speed="10.48" posLat="0.00" speedLat="0.00"/>
            </lane>
        </edge>
        <edge id="edge1">
            <lane id="edge1_0">
                <vehicle id="flow0.0" pos="27.20" speed="13.31" posLat="0.00" speedLat="0.00"/>
            </lane>
            <lane id="edge1_1"/>
        </edge>
    </timestep>
    <timestep time="13.00">
        <edge id="edge0">
            <lane id="edge0_0">
                <vehicle id="flow0.1" pos="10.28" speed="2.21" posLat="0.00" speedLat="0.00"/>
            </lane>
            <lane id="edge0_1">
                <vehicle id="flow1.0" pos="73.92" speed="11.20" posLat="0.00" speedLat="0.00"/>
            </lane>
        </edge>
        <edge id="edge1">
            <lane id="edge1_0">
                <vehicle id="flow0.0" pos="41.83" speed="14.63" posLat="0.00" speedLat="0.00"/>
            </lane>
            <lane id="edge1_1"/>
        </edge>
    </timestep>
    <timestep time="14.00">
        <edge id="edge0">
            <lane id="edge0_0">
                <vehicle id="flow1.1" pos="5.10" speed="0.00" posLat="0.00" speedLat="0.00"/>
                <vehicle id="flow0.1" pos="13.95" speed="3.67" posLat="0.00" speedLat="0.00"/>
            </lane>
            <lane id="edge0_1">
                <vehicle id="flow1.0" pos="84.49" speed="10.57" posLat="0.00" speedLat="0.00"/>
            </lane>
        </edge>
        <edge id="edge1">
            <lane id="edge1_0">
                <vehicle id="flow0.0" pos="54.64" speed="12.81" posLat="0.00" speedLat="0.00"/>
            </lane>
            <lane id="edge1_1"/>
        </edge>
    </timestep>
    <timestep time="15.00">
        <edge id="edge0">
            <lane id="edge0_0">
                <vehicle id="flow1.1" pos="5.55" speed="0.45" posLat="0.00" speedLat="0.00"/>
                <vehicle id="flow0.1" pos="19.59" speed="5.64" posLat="0.00" speedLat="0.00"/>
            </lane>
            <lane id="edge0_1"/>
        </edge>
        <edge id="edge1">
            <lane id="edge1_0"/>
            <lane id="edge1_1">
                <vehicle id="flow1.0" pos="10.36" speed="10.59" posLat="0.00" speedLat="0.00"/>
            </lane>
        </edge>
        <edge id="edge2">
            <lane id="edge2_0">
                <vehicle id="flow0.0" pos="3.98" speed="12.14" posLat="0.00" speedLat="0.00"/>
            </lane>
            <lane id="edge2_1"/>
        </edge>
    </timestep>
    <timestep time="16.00">
        <edge id="edge0">
            <lane id="edge0_0">
                <vehicle id="flow1.1" pos="7.80" speed="2.26" posLat="0.00" speedLat="0.00"/>
                <vehicle id="flow0.1" pos="27.96" speed="8.37" posLat="0.00" speedLat="0.00"/>
            </lane>
            <lane id="edge0_1"/>
        </edge>
        <edge id="edge1">
            <lane id="edge1_0"/>
            <lane id="edge1_1">
                <vehicle id="flow1.0" pos="20.84" speed="10.48" posLat="0.00" speedLat="0.00"/>
            </lane>
        </edge>
        <edge id="edge2">
            <lane id="edge2_0">
                <vehicle id="flow0.0" pos="17.65" speed="13.67" posLat="0.00" speedLat="0.00"/>
            </lane>
            <lane id="edge2_1"/>
        </edge>
    </timestep>
    <timestep time="17.00">
        <edge id="edge0">
            <lane id="edge0_0">
                <vehicle id="flow1.1" pos="10.32" speed="2.52" posLat="1.00" speedLat="1.00"/>
                <vehicle id="flow0.1" pos="37.50" speed="9.53" posLat="0.00" speedLat="0.00"/>
            </lane>
            <lane id="edge0_1"/>
        </edge>
        <edge id="edge1">
            <lane id="edge1_0"/>
            <lane id="edge1_1">
                <vehicle id="flow1.0" pos="33.87" speed="13.03" posLat="0.00" speedLat="0.00"/>
            </lane>
        </edge>
        <edge id="edge2">
            <lane id="edge2_0">
                <vehicle id="flow0.0" pos="32.01" speed="14.35" posLat="0.00" speedLat="0.00"/>
            </lane>
            <lane id="edge2_1"/>
        </edge>
    </timestep>
    <timestep time="18.00">
        <edge id="edge0">
            <lane id="edge0_0">
                <vehicle id="flow0.2" pos="5.10" speed="0.00" posLat="0.00" speedLat="0.00"/>
                <vehicle id="flow0.1" pos="49.86" speed="12.36" posLat="0.00" speedLat="0.00"/>
            </lane>
            <lane id="edge0_1">
                <vehicle id="flow1.1" pos="13.78" speed="3.46" posLat="-1.20" speedLat="1.00"/>
            </lane>
        </edge>
        <edge id="edge1">
            <lane id="edge1_0"/>
            <lane id="edge1_1">
                <vehicle id="flow1.0" pos="45.97" speed="12.10" posLat="0.00" speedLat="0.00"/>
            </lane>
        </edge>
        <edge id="edge2">
            <lane id="edge2_0">
                <vehicle id="flow0.0" pos="45.03" speed="13.03" posLat="0.00" speedLat="0.00"/>
            </lane>
            <lane id="edge2_1"/>
        </edge>
    </timestep>
    <timestep time="19.00">
        <edge id="edge0">
            <lane id="edge0_0">
                <vehicle id="flow0.2" pos="5.79" speed="0.69" posLat="0.00" speedLat="0.00"/>
                <vehicle id="flow0.1" pos="63.88" speed="14.03" posLat="0.00" speedLat="0.00"/>
            </lane>
            <lane id="edge0_1">
                <vehicle id="flow1.1" pos="17.95" speed="4.17" posLat="-0.70" speedLat="0.50"/>
            </lane>
        </edge>
        <edge id="edge1">
            <lane id="edge1_0"/>
            <lane id="edge1_1">
                <vehicle id="flow1.0" pos="58.62" speed="12.65" posLat="0.00" speedLat="0.00"/>
            </lane>
        </edge>
        <edge id="edge2">
            <lane id="edge2_0">
                <vehicle id="flow0.0" pos="56.80" speed="11.77" posLat="0.00" speedLat="0.00"/>
            </lane>
            <lane id="edge2_1"/>
        </edge>
    </timestep>
    <timestep time="20.00">
        <edge id="edge0">
            <lane id="edge0_0">
                <vehicle id="flow0.2" pos="8.60" speed="2.81" posLat="0.00" speedLat="0.00"/>
                <vehicle id="flow0.1" pos="77.78" speed="13.89" posLat="0.00" speedLat="0.00"/>
            </lane>
            <lane id="edge0_1">
                <vehicle id="flow1.1" pos="24.70" speed="6.74" posLat="0.00" speedLat="0.70"/>
            </lane>
        </edge>
        <edge id="edge2">
            <lane id="edge2_0">
                <vehicle id="flow0.0" pos="63.90" speed="7.10" posLat="0.00" speedLat="0.00"/>
            </lane>
            <lane id="edge2_1">
                <vehicle id="flow1.0" pos="7.61" speed="11.80" posLat="0.00" speedLat="0.00"/>
            </lane>
        </edge>
    </timestep>
    <timestep time="21.00">
        <edge id="edge0">
            <lane id="edge0_0">
                <vehicle id="flow0.2" pos="13.63" speed="5.03" posLat="0.00" speedLat="0.00"/>
            </lane>
            <lane id="edge0_1">
                <vehicle id="flow1.1" pos="33.46" speed="8.77" posLat="0.00" speedLat="0.00"/>
            </lane>
        </edge>
        <edge id="edge1">
            <lane id="edge1_0">
                <vehicle id="flow0.1" pos="4.89" speed="11.84" posLat="0.00" speedLat="0.00"/>
            </lane>
            <lane id="edge1_1"/>
        </edge>
        <edge id="edge2">
            <lane id="edge2_0">
                <vehicle id="flow0.0" pos="65.46" speed="1.55" posLat="0.00" speedLat="0.00"/>
            </lane>
            <lane id="edge2_1">
                <vehicle id="flow1.0" pos="20.44" speed="12.83" posLat="0.00" speedLat="0.00"/>
            </lane>
        </edge>
    </timestep>
    <timestep time="22.00">
        <edge id="edge0">
            <lane id="edge0_0">
                <vehicle id="flow0.2" pos="18.97" speed="5.33" posLat="0.00" speedLat="0.00"/>
            </lane>
            <lane id="edge0_1">
                <vehicle id="flow1.1" pos="43.98" speed="10.52" posLat="0.00" speedLat="0.00"/>
            </lane>
        </edge>
        <edge id="edge1">
            <lane id="edge1_0">
                <vehicle id="flow0.1" pos="16.91" speed="12.02" posLat="0.00" speedLat="0.00"/>
            </lane>
            <lane id="edge1_1"/>
        </edge>
        <edge id="edge2">
            <lane id="edge2_0">
                <vehicle id="flow0.0" pos="65.50" speed="0.04" posLat="0.00" speedLat="0.00"/>
            </lane>
            <lane id="edge2_1">
                <vehicle id="flow1.0" pos="32.49" speed="12.05" posLat="0.00" speedLat="0.00"/>
            </lane>
        </edge>
    </timestep>
    <timestep time="23.00">
        <edge id="edge0">
            <lane id="edge0_0">
                <vehicle id="flow0.2" pos="26.89" speed="7.93" posLat="0.00" speedLat="0.00"/>
            </lane>
            <lane id="edge0_1">
                <vehicle id="flow1.1" pos="55.69" speed="11.71" posLat="0.00" speedLat="0.00"/>
            </lane>
        </edge>
        <edge id="edge1">
            <lane id="edge1_0">
                <vehicle id="flow0.1" pos="28.88" speed="11.97" posLat="0.00" speedLat="0.00"/>
            </lane>
            <lane id="edge1_1"/>
        </edge>
        <edge id="edge2">
            <lane id="edge2_0">
                <vehicle id="flow0.0" pos="65.56" speed="0.06" posLat="0.00" speedLat="0.00"/>
            </lane>
            <lane id="edge2_1">
                <vehicle id="flow1.0" pos="42.85" speed="10.35" posLat="0.00" speedLat="0.00"/>
            </lane>
        </edge>
    </timestep>
    <timestep time="24.00">
        <edge id="edge0">
            <lane id="edge0_0">
                <vehicle id="flow1.2" pos="5.10" speed="0.00" posLat="0.00" speedLat="0.00"/>
                <vehicle id="flow0.2" pos="36.16" speed="9.26" posLat="0.00" speedLat="0.00"/>
            </lane>
            <lane id="edge0_1">
                <vehicle id="flow1.1" pos="70.31" speed="14.61" posLat="0.00" speedLat="0.00"/>
            </lane>
        </edge>
        <edge id="edge1">
            <lane id="edge1_0">
                <vehicle id="flow0.1" pos="40.26" speed="11.38" posLat="0.00" speedLat="0.00"/>
            </lane>
            <lane id="edge1_1"/>
        </edge>
        <edge id="edge2">
            <lane id="edge2_0">
                <vehicle id="flow0.0" pos="65.57" speed="0.00" posLat="0.00" speedLat="0.00"/>
            </lane>
            <lane id="edge2_1">
                <vehicle id="flow1.0" pos="55.40" speed="12.56" posLat="0.00" speedLat="0.00"/>
            </lane>
        </edge>
    </timestep>
    <timestep time="25.00">
        <edge id="edge0">
            <lane id="edge0_0">
                <vehicle id="flow1.2" pos="6.16" speed="1.06" posLat="0.00" speedLat="0.00"/>
                <vehicle id="flow0.2" pos="48.23" speed="12.07" posLat="0.00" speedLat="0.00"/>
            </lane>
            <lane id="edge0_1">
                <vehicle id="flow1.1" pos="83.17" speed="12.86" posLat="0.00" speedLat="0.00"/>
            </lane>
        </edge>
        <edge id="edge1">
            <lane id="edge1_0">
                <vehicle id="flow0.1" pos="52.43" speed="12.17" posLat="1.00" speedLat="1.00"/>
            </lane>
            <lane id="edge1_1"/>
        </edge>
        <edge id="edge2">
            <lane id="edge2_0">
                <vehicle id="flow0.0" pos="65.57" speed="0.00" posLat="0.00" speedLat="0.00"/>
            </lane>
            <lane id="edge2_1">
                <vehicle id="flow1.0" pos="61.96" speed="6.56" posLat="0.00" speedLat="0.00"/>
            </lane>
        </edge>
    </timestep>
    <timestep time="26.00">
        <edge id="edge0">
            <lane id="edge0_0">
                <vehicle id="flow1.2" pos="8.58" speed="2.42" posLat="0.00" speedLat="0.00"/>
                <vehicle id="flow0.2" pos="62.39" speed="14.16" posLat="0.00" speedLat="0.00"/>
            </lane>
            <lane id="edge0_1"/>
        </edge>
        <edge id="edge1">
            <lane id="edge1_0"/>
            <lane id="edge1_1">
                <vehicle id="flow1.1" pos="11.65" speed="13.21" posLat="0.00" speedLat="0.00"/>
            </lane>
        </edge>
        <edge id="edge2">
            <lane id="edge2_0">
                <vehicle id="flow0.1" pos="2.61" speed="12.98" posLat="1.00" speedLat="0.00"/>
                <vehicle id="flow0.0" pos="65.57" speed="0.00" posLat="0.00" speedLat="0.00"/>
            </lane>
            <lane id="edge2_1">
                <vehicle id="flow1.0" pos="63.81" speed="1.85" posLat="0.00" speedLat="0.00"/>
            </lane>
        </edge>
    </timestep>
    <timestep time="27.00">
        <edge id="edge0">
            <lane id="edge0_0">
                <vehicle id="flow1.2" pos="11.20" speed="2.62" posLat="0.00" speedLat="0.00"/>
                <vehicle id="flow0.2" pos="75.62" speed="13.24" posLat="0.00" speedLat="0.00"/>
            </lane>
            <lane id="edge0_1"/>
        </edge>
        <edge id="edge1">
            <lane id="edge1_0"/>
            <lane id="edge1_1">
                <vehicle id="flow1.1" pos="26.30" speed="14.65" posLat="0.00" speedLat="0.00"/>
            </lane>
        </edge>
        <edge id="edge2">
            <lane id="edge2_0">
                <vehicle id="flow0.1" pos="14.82" speed="12.21" posLat="0.00" speedLat="-1.00"/>
                <vehicle id="flow0.0" pos="65.57" speed="0.00" posLat="0.00" speedLat="0.00"/>
            </lane>
            <lane id="edge2_1">
                <vehicle id="flow1.0" pos="64.79" speed="0.99" posLat="0.00" speedLat="0.00"/>
            </lane>
        </edge>
    </timestep>
    <timestep time="28.00">
        <edge id="edge0">
            <lane id="edge0_0">
                <vehicle id="flow0.3" pos="5.10" speed="0.00" posLat="0.00" speedLat="0.00"/>
                <vehicle id="flow1.2" pos="16.10" speed="4.90" posLat="0.00" speedLat="0.00"/>
            </lane>
            <lane id="edge0_1"/>
        </edge>
        <edge id="edge1">
            <lane id="edge1_0">
                <vehicle id="flow0.2" pos="4.28" speed="13.38" posLat="0.00" speedLat="0.00"/>
            </lane>
            <lane id="edge1_1">
                <vehicle id="flow1.1" pos="38.87" speed="12.57" posLat="0.00" speedLat="0.00"/>
            </lane>
        </edge>
        <edge id="edge2">
            <lane id="edge2_0">
                <vehicle id="flow0.1" pos="27.69" speed="12.87" posLat="0.00" speedLat="0.00"/>
                <vehicle id="flow0.0" pos="65.57" speed="0.00" posLat="0.00" speedLat="0.00"/>
            </lane>
            <lane id="edge2_1">
                <vehicle id="flow1.0" pos="65.16" speed="0.37" posLat="0.00" speedLat="0.00"/>
            </lane>
        </edge>
    </timestep>
    <timestep time="29.00">
        <edge id="edge0">
            <lane id="edge0_0">
                <vehicle id="flow0.3" pos="6.82" speed="1.72" posLat="0.00" speedLat="0.00"/>
                <vehicle id="flow1.2" pos="23.17" speed="7.07" posLat="0.00" speedLat="0.00"/>
            </lane>
            <lane id="edge0_1"/>
        </edge>
        <edge id="edge1">
            <lane id="edge1_0">
                <vehicle id="flow0.2" pos="15.90" speed="11.62" posLat="0.00" speedLat="0.00"/>
            </lane>
            <lane id="edge1_1">
                <vehicle id="flow1.1" pos="51.18" speed="12.31" posLat="0.00" speedLat="0.00"/>
            </lane>
        </edge>
        <edge id="edge2">
            <lane id="edge2_0">
                <vehicle id="flow0.1" pos="41.68" speed="13.99" posLat="0.00" speedLat="0.00"/>
                <vehicle id="flow0.0" pos="65.57" speed="0.00" posLat="0.00" speedLat="0.00"/>
            </lane>
            <lane id="edge2_1">
                <vehicle id="flow1.0" pos="65.46" speed="0.30" posLat="0.00" speedLat="0.00"/>
            </lane>
        </edge>
    </timestep>
    <timestep time="30.00">
        <edge id="edge0">
            <lane id="edge0_0">
                <vehicle id="flow0.3" pos="10.61" speed="3.79" posLat="1.00" speedLat="1.00"/>
                <vehicle id="flow1.2" pos="32.33" speed="9.16" posLat="0.00" speedLat="0.00"/>
            </lane>
            <lane id="edge0_1"/>
        </edge>
        <edge id="edge1">
            <lane id="edge1_0">
                <vehicle id="flow0.2" pos="28.94" speed="13.04" posLat="0.00" speedLat="0.00"/>
            </lane>
            <lane id="edge1_1"/>
        </edge>
        <edge id="edge2">
            <lane id="edge2_0">
                <vehicle id="flow0.1" pos="50.05" speed="8.37" posLat="0.00" speedLat="0.00"/>
            </lane>
            <lane id="edge2_1">
                <vehicle id="flow1.1" pos="2.06" speed="13.68" posLat="0.00" speedLat="0.00"/>
            </lane>
        </edge>
        <edge id="edge3">
            <lane id="edge3_0">
                <vehicle id="flow0.0" pos="1.68" speed="2.68" posLat="0.00" speedLat="0.00"/>
            </lane>
            <lane id="edge3_1">
                <vehicle id="flow1.0" pos="2.03" speed="3.14" posLat="0.00" speedLat="0.00"/>
            </lane>
        </edge>
    </timestep>
    <timestep time="31.00">
        <edge id="edge0">
            <lane id="edge0_0">
                <vehicle id="flow1.2" pos="42.82" speed="10.50" posLat="0.00" speedLat="0.00"/>
            </lane>
            <lane id="edge0_1">
                <vehicle id="flow0.3" pos="14.85" speed="4.24" posLat="-1.20" speedLat="1.00"/>
            </lane>
        </edge>
        <edge id="edge1">
            <lane id="edge1_0">
                <vehicle id="flow0.2" pos="41.40" speed="12.46" posLat="0.00" speedLat="0.00"/>
            </lane>
            <lane id="edge1_1"/>
        </edge>
        <edge id="edge2">
            <lane id="edge2_0">
                <vehicle id="flow0.1" pos="55.93" speed="5.87" posLat="0.00" speedLat="0.00"/>
            </lane>
            <lane id="edge2_1">
                <vehicle id="flow1.1" pos="16.91" speed="14.85" posLat="0.00" speedLat="0.00"/>
            </lane>
        </edge>
        <edge id="edge3">
            <lane id="edge3_0">
                <vehicle id="flow0.0" pos="6.01" speed="4.33" posLat="0.00" speedLat="0.00"/>
            </lane>
            <lane id="edge3_1">
                <vehicle id="flow1.0" pos="5.53" speed="3.51" posLat="0.00" speedLat="0.00"/>
            </lane>
        </edge>
    </timestep>
    <timestep time="32.00">
        <edge id="edge0">
            <lane id="edge0_0">
                <vehicle id="flow1.2" pos="52.26" speed="9.44" posLat="0.00" speedLat="0.00"/>
            </lane>
            <lane id="edge0_1">
                <vehicle id="flow0.3" pos="21.04" speed="6.19" posLat="-0.70" speedLat="0.50"/>
            </lane>
        </edge>
        <edge id="edge1">
            <lane id="edge1_0">
                <vehicle id="flow0.2" pos="53.15" speed="11.76" posLat="0.00" speedLat="0.00"/>
            </lane>
            <lane id="edge1_1"/>
        </edge>
        <edge id="edge2">
            <lane id="edge2_0">
                <vehicle id="flow0.1" pos="61.48" speed="5.55" posLat="1.00" speedLat="1.00"/>
            </lane>
            <lane id="edge2_1">
                <vehicle id="flow1.1" pos="29.92" speed="13.01" posLat="0.00" speedLat="0.00"/>
            </lane>
        </edge>
        <edge id="edge3">
            <lane id="edge3_0">
                <vehicle id="flow0.0" pos="10.92" speed="4.91" posLat="0.00" speedLat="0.00"/>
            </lane>
            <lane id="edge3_1">
                <vehicle id="flow1.0" pos="10.82" speed="5.29" posLat="0.00" speedLat="0.00"/>
            </lane>
        </edge>
    </timestep>
    <timestep time="33.00">
        <edge id="edge0">
            <lane id="edge0_0">
                <vehicle id="flow1.2" pos="61.97" speed="9.71" posLat="0.00" speedLat="0.00"/>
            </lane>
            <lane id="edge0_1">
                <vehicle id="flow0.3" pos="28.07" speed="7.03" posLat="0.00" speedLat="0.70"/>
            </lane>
        </edge>
        <edge id="edge2">
            <lane id="edge2_0">
                <vehicle id="flow0.2" pos="2.82" speed="12.46" posLat="0.00" speedLat="0.00"/>
            </lane>
            <lane id="edge2_1">
                <vehicle id="flow1.1" pos="42.63" speed="12.71" posLat="0.00" speedLat="0.00"/>
            </lane>
        </edge>
        <edge id="edge3">
            <lane id="edge3_0">
                <vehicle id="flow0.1" pos="1.89" speed="6.98" posLat="1.00" speedLat="0.00"/>
                <vehicle id="flow0.0" pos="17.53" speed="6.61" posLat="0.00" speedLat="0.00"/>
            </lane>
            <lane id="edge3_1">
                <vehicle id="flow1.0" pos="17.01" speed="6.19" posLat="0.00" speedLat="0.00"/>
            </lane>
        </edge>
    </timestep>
    <timestep time="34.00">
        <edge id="edge0">
            <lane id="edge0_0">
                <vehicle id="flow1.2" pos="71.67" speed="9.70" posLat="0.00" speedLat="0.00"/>
            </lane>
            <lane id="edge0_1">
                <vehicle id="flow0.3" pos="36.69" speed="8.62" posLat="0.00" speedLat="0.00"/>
            </lane>
        </edge>
        <edge id="edge2">
            <lane id="edge2_0">
                <vehicle id="flow0.2" pos="17.12" speed="14.30" posLat="0.00" speedLat="0.00"/>
            </lane>
            <lane id="edge2_1">
                <vehicle id="flow1.1" pos="52.28" speed="9.65" posLat="0.00" speedLat="0.00"/>
            </lane>
        </edge>
        <edge id="edge3">
            <lane id="edge3_0">
                <vehicle id="flow0.0" pos="24.69" speed="7.16" posLat="0.00" speedLat="0.00"/>
            </lane>
            <lane id="edge3_1">
                <vehicle id="flow0.1" pos="6.16" speed="4.27" posLat="-1.20" speedLat="1.00"/>
                <vehicle id="flow1.0" pos="25.20" speed="8.20" posLat="0.00" speedLat="0.00"/>
            </lane>
        </edge>
    </timestep>
    <timestep time="35.00">
        <edge id="edge0">
            <lane id="edge0_0">
                <vehicle id="flow1.2" pos="82.97" speed="11.30" posLat="0.00" speedLat="0.00"/>
            </lane>
            <lane id="edge0_1">
                <vehicle id="flow0.3" pos="45.53" speed="8.84" posLat="0.00" speedLat="0.00"/>
            </lane>
        </edge>
        <edge id="edge2">
            <lane id="edge2_0">
                <vehicle id="flow0.2" pos="29.55" speed="12.43" posLat="0.00" speedLat="0.00"/>
            </lane>
            <lane id="edge2_1">
                <vehicle id="flow1.1" pos="60.33" speed="8.05" posLat="0.00" speedLat="0.00"/>
            </lane>
        </edge>
        <edge id="edge3">
            <lane id="edge3_0">
                <vehicle id="flow0.0" pos="33.23" speed="8.53" posLat="0.00" speedLat="0.00"/>
            </lane>
            <lane id="edge3_1">
                <vehicle id="flow0.1" pos="11.49" speed="5.32" posLat="-0.70" speedLat="0.50"/>
                <vehicle id="flow1.0" pos="35.92" speed="10.72" posLat="0.00" speedLat="0.00"/>
            </lane>
        </edge>
    </timestep>
    <timestep time="36.00">
        <edge id="edge0">
            <lane id="edge0_0">
                <vehicle id="flow0.4" pos="5.10" speed="0.00" posLat="0.00" speedLat="0.00"/>
            </lane>
            <lane id="edge0_1">
                <vehicle id="flow0.3" pos="54.81" speed="9.28" posLat="0.00" speedLat="0.00"/>
            </lane>
        </edge>
        <edge id="edge1">
            <lane id="edge1_0">