<?xml version="1.0" encoding="UTF-8"?>

<!-- generated on 2021-11-19 02:33:27 by Eclipse SUMO GUI Version 1.10.0
<configuration xmlns:xsi="http://www.w3.org/2001/XMLSchema-instance" xsi:noNamespaceSchemaLocation="http://sumo.dlr.de/xsd/sumoConfiguration.xsd">

    <input>
        <net-file value="configs/thesis.net.xml"/>
        <route-files value="configs/thesis.rou.xml"/>
        <additional-files value="configs/thesis.add.xml"/>
    </input>

    <output>
        <netstate-dump value="configs/../reports/temp_netstate-dump.xml"/>
        <fcd-output value="configs/../reports/temp_fcd.xml"/>
        <tripinfo-output value="reports/temp_tripinfo.xml"/>
        <collision-output value="reports/temp_collisions.xml"/>
    </output>

    <time>
        <begin value="0"/>
    </time>

    <processing>
        <lateral-resolution value="3"/>
        <collision.stoptime value="600"/>
        <time-to-teleport value="0"/>
    </processing>

    <report>
        <no-step-log value="true"/>
    </report>

    <traci_server>
        <remote-port value="53242"/>
    </traci_server>

    <gui_only>
        <gui-settings-file value="configs/../../globalConfigs/file.settings.xml"/>
    </gui_only>

</configuration>
-->

<tripinfos xmlns:xsi="http://www.w3.org/2001/XMLSchema-instance" xsi:noNamespaceSchemaLocation="http://sumo.dlr.de/xsd/tripinfo_file.xsd">
    <tripinfo id="flow0.0" depart="0.00" departLane="edge0_0" departPos="5.10" departPosLat="0.00" departSpeed="0.00" departDelay="0.00" arrival="43.00" arrivalLane="edge4_0" arrivalPos="62.29" arrivalPosLat="0.00" arrivalSpeed="14.57" duration="43.00" routeLength="338.46" waitingTime="8.00" waitingCount="1" stopTime="0.00" timeLoss="19.53" rerouteNo="0" devices="tripinfo_flow0.0 ssm_flow0.0 fcd_flow0.0" vType="Civilian" speedFactor="1.06" vaporized=""/>
    <tripinfo id="flow1.0" depart="3.00" departLane="edge0_0" departPos="5.10" departPosLat="0.00" departSpeed="0.00" departDelay="3.00" arrival="44.00" arrivalLane="edge4_1" arrivalPos="62.29" arrivalPosLat="-1.00" arrivalSpeed="10.96" duration="41.00" routeLength="338.46" waitingTime="0.00" waitingCount="0" stopTime="0.00" timeLoss="14.31" rerouteNo="0" devices="tripinfo_flow1.0 ssm_flow1.0 fcd_flow1.0" vType="C_Civilian" speedFactor="0.94" vaporized=""/>
    <tripinfo id="flow0.1" depart="9.00" departLane="edge0_0" departPos="5.10" departPosLat="0.00" departSpeed="0.00" departDelay="0.00" arrival="46.00" arrivalLane="edge4_1" arrivalPos="62.29" arrivalPosLat="0.00" arrivalSpeed="13.76" duration="37.00" routeLength="338.46" waitingTime="0.00" waitingCount="0" stopTime="0.00" timeLoss="12.14" rerouteNo="0" devices="tripinfo_flow0.1 ssm_flow0.1 fcd_flow0.1" vType="Civilian" speedFactor="1.01" vaporized=""/>
    <tripinfo id="flow1.1" depart="14.00" departLane="edge0_0" departPos="5.10" departPosLat="0.00" departSpeed="0.00" departDelay="2.00" arrival="47.00" arrivalLane="edge4_1" arrivalPos="62.29" arrivalPosLat="0.00" arrivalSpeed="14.55" duration="33.00" routeLength="338.46" waitingTime="0.00" waitingCount="0" stopTime="0.00" timeLoss="10.45" rerouteNo="0" devices="tripinfo_flow1.1 ssm_flow1.1 fcd_flow1.1" vType="C_Civilian" speedFactor="1.08" vaporized=""/>
    <tripinfo id="flow0.2" depart="18.00" departLane="edge0_0" departPos="5.10" departPosLat="0.00" departSpeed="0.00" departDelay="0.00" arrival="48.00" arrivalLane="edge4_0" arrivalPos="62.29" arrivalPosLat="0.00" arrivalSpeed="13.99" duration="30.00" routeLength="338.46" waitingTime="0.00" waitingCount="0" stopTime="0.00" timeLoss="6.25" rerouteNo="0" devices="tripinfo_flow0.2 ssm_flow0.2 fcd_flow0.2" vType="Civilian" speedFactor="1.03" vaporized=""/>
    <tripinfo id="flow0.3" depart="28.00" departLane="edge0_0" departPos="5.10" departPosLat="0.00" departSpeed="0.00" departDelay="1.00" arrival="59.00" arrivalLane="edge4_1" arrivalPos="62.29" arrivalPosLat="0.00" arrivalSpeed="11.71" duration="31.00" routeLength="338.46" waitingTime="0.00" waitingCount="0" stopTime="0.00" timeLoss="7.38" rerouteNo="0" devices="tripinfo_flow0.3 ssm_flow0.3 fcd_flow0.3" vType="Civilian" speedFactor="1.05" vaporized=""/>
    <tripinfo id="flow1.2" depart="24.00" departLane="edge0_0" departPos="5.10" departPosLat="0.00" departSpeed="0.00" departDelay="0.00" arrival="62.00" arrivalLane="edge4_0" arrivalPos="62.29" arrivalPosLat="0.00" arrivalSpeed="10.68" duration="38.00" routeLength="338.46" waitingTime="0.00" waitingCount="0" stopTime="0.00" timeLoss="7.90" rerouteNo="0" devices="tripinfo_flow1.2 ssm_flow1.2 fcd_flow1.2" vType="C_Civilian" speedFactor="0.83" vaporized=""/>
    <tripinfo id="flow1.5" depart="60.00" departLane="edge0_0" departPos="5.10" departPosLat="0.00" departSpeed="0.00" departDelay="0.00" arrival="104.00" arrivalLane="edge4_1" arrivalPos="62.29" arrivalPosLat="0.00" arrivalSpeed="12.29" duration="44.00" routeLength="435.06" waitingTime="0.00" waitingCount="0" stopTime="0.00" timeLoss="13.44" rerouteNo="1" devices="tripinfo_flow1.5 ssm_flow1.5 fcd_flow1.5" vType="C_Civilian" speedFactor="1.05" vaporized=""/>
    <tripinfo id="flow1.6" depart="74.00" departLane="edge0_0" departPos="5.10" departPosLat="0.00" departSpeed="0.00" departDelay="2.00" arrival="120.00" arrivalLane="edge4_1" arrivalPos="62.29" arrivalPosLat="0.00" arrivalSpeed="10.62" duration="46.00" routeLength="435.06" waitingTime="0.00" waitingCount="0" stopTime="0.00" timeLoss="11.63" rerouteNo="1" devices="tripinfo_flow1.6 ssm_flow1.6 fcd_flow1.6" vType="C_Civilian" speedFactor="0.93" vaporized=""/>
    <tripinfo id="flow1.7" depart="84.00" departLane="edge0_0" departPos="5.10" departPosLat="0.00" departSpeed="0.00" departDelay="0.00" arrival="127.00" arrivalLane="edge4_1" arrivalPos="62.29" arrivalPosLat="0.00" arrivalSpeed="12.86" duration="43.00" routeLength="437.64" waitingTime="0.00" waitingCount="0" stopTime="0.00" timeLoss="9.14" rerouteNo="2" devices="tripinfo_flow1.7 ssm_flow1.7 fcd_flow1.7" vType="C_Civilian" speedFactor="0.94" vaporized=""/>
    <tripinfo id="flow0.4" depart="36.00" departLane="edge0_0" departPos="5.10" departPosLat="0.00" departSpeed="0.00" departDelay="0.00" arrival="133.00" arrivalLane="edge4_0" arrivalPos="62.29" arrivalPosLat="0.00" arrivalSpeed="10.56" duration="97.00" routeLength="338.46" waitingTime="58.00" waitingCount="1" stopTime="0.00" timeLoss="69.45" rerouteNo="0" devices="tripinfo_flow0.4 ssm_flow0.4 fcd_flow0.4" vType="Civilian" speedFactor="0.89" vaporized=""/>
    <tripinfo id="flow1.3" depart="39.00" departLane="edge0_0" departPos="5.10" departPosLat="0.00" departSpeed="0.00" departDelay="3.00" arrival="134.00" arrivalLane="edge4_1" arrivalPos="62.29" arrivalPosLat="0.00" arrivalSpeed="11.11" duration="95.00" routeLength="338.46" waitingTime="57.00" waitingCount="1" stopTime="0.00" timeLoss="68.73" rerouteNo="0" devices="tripinfo_flow1.3 ssm_flow1.3 fcd_flow1.3" vType="C_Civilian" speedFactor="0.94" vaporized=""/>
    <tripinfo id="flow0.5" depart="45.00" departLane="edge0_0" departPos="5.10" departPosLat="0.00" departSpeed="0.00" departDelay="0.00" arrival="136.00" arrivalLane="edge4_0" arrivalPos="62.29" arrivalPosLat="-0.70" arrivalSpeed="11.73" duration="91.00" routeLength="338.46" waitingTime="49.00" waitingCount="2" stopTime="0.00" timeLoss="61.60" rerouteNo="0" devices="tripinfo_flow0.5 ssm_flow0.5 fcd_flow0.5" vType="Civilian" speedFactor="0.86" vaporized=""/>
    <tripinfo id="flow1.4" depart="48.00" departLane="edge0_0" departPos="5.10" departPosLat="0.00" departSpeed="0.00" departDelay="0.00" arrival="137.00" arrivalLane="edge4_1" arrivalPos="62.29" arrivalPosLat="0.00" arrivalSpeed="15.06" duration="89.00" routeLength="338.46" waitingTime="49.00" waitingCount="2" stopTime="0.00" timeLoss="66.25" rerouteNo="0" devices="tripinfo_flow1.4 ssm_flow1.4 fcd_flow1.4" vType="C_Civilian" speedFactor="1.09" vaporized=""/>
    <tripinfo id="flow0.6" depart="54.00" departLane="edge0_0" departPos="5.10" departPosLat="0.00" departSpeed="0.00" departDelay="0.00" arrival="137.00" arrivalLane="edge4_0" arrivalPos="62.29" arrivalPosLat="-0.70" arrivalSpeed="11.86" duration="83.00" routeLength="338.46" waitingTime="44.00" waitingCount="2" stopTime="0.00" timeLoss="59.12" rerouteNo="0" devices="tripinfo_flow0.6 ssm_flow0.6 fcd_flow0.6" vType="Civilian" speedFactor="1.03" vaporized=""/>
    <tripinfo id="flow3.0" depart="60.00" departLane="edge8_0" departPos="10.10" departPosLat="0.00" departSpeed="0.00" departDelay="0.00" arrival="143.00" arrivalLane="edge11_0" arrivalPos="67.04" arrivalPosLat="0.52" arrivalSpeed="20.76" duration="83.00" routeLength="404.90" waitingTime="37.00" waitingCount="2" stopTime="0.00" timeLoss="63.52" rerouteNo="0" devices="tripinfo_flow3.0 ssm_flow3.0 bluelight_flow3.0 fcd_flow3.0" vType="C_ER" speedFactor="1.50" vaporized="">
        <bluelight/>
    </tripinfo>
    <tripinfo id="flow0.7" depart="65.00" departLane="edge0_0" departPos="5.10" departPosLat="0.00" departSpeed="0.00" departDelay="2.00" arrival="143.00" arrivalLane="edge4_0" arrivalPos="62.29" arrivalPosLat="-0.70" arrivalSpeed="12.79" duration="78.00" routeLength="338.46" waitingTime="32.00" waitingCount="1" stopTime="0.00" timeLoss="56.05" rerouteNo="0" devices="tripinfo_flow0.7 ssm_flow0.7 fcd_flow0.7" vType="Civilian" speedFactor="1.12" vaporized=""/>
    <tripinfo id="flow0.10" depart="90.00" departLane="edge0_0" departPos="5.10" departPosLat="0.00" departSpeed="0.00" departDelay="0.00" arrival="144.00" arrivalLane="edge4_1" arrivalPos="62.29" arrivalPosLat="0.00" arrivalSpeed="11.77" duration="54.00" routeLength="338.46" waitingTime="7.00" waitingCount="1" stopTime="0.00" timeLoss="27.24" rerouteNo="0" devices="tripinfo_flow0.10 ssm_flow0.10 fcd_flow0.10" vType="Civilian" speedFactor="0.94" vaporized=""/>
    <tripinfo id="flow0.8" depart="72.00" departLane="edge0_0" departPos="5.10" departPosLat="0.00" departSpeed="0.00" departDelay="0.00" arrival="146.00" arrivalLane="edge4_0" arrivalPos="62.29" arrivalPosLat="0.00" arrivalSpeed="11.83" duration="74.00" routeLength="338.46" waitingTime="28.00" waitingCount="1" stopTime="0.00" timeLoss="48.99" rerouteNo="0" devices="tripinfo_flow0.8 ssm_flow0.8 fcd_flow0.8" vType="Civilian" speedFactor="0.99" vaporized=""/>
    <tripinfo id="flow0.11" depart="99.00" departLane="edge0_0" departPos="5.10" departPosLat="0.00" departSpeed="0.00" departDelay="0.00" arrival="146.00" arrivalLane="edge4_1" arrivalPos="62.29" arrivalPosLat="0.00" arrivalSpeed="14.01" duration="47.00" routeLength="338.46" waitingTime="1.00" waitingCount="1" stopTime="0.00" timeLoss="22.21" rerouteNo="0" devices="tripinfo_flow0.11 ssm_flow0.11 fcd_flow0.11" vType="Civilian" speedFactor="1.02" vaporized=""/>
    <tripinfo id="flow0.12" depart="108.00" departLane="edge0_0" departPos="5.10" departPosLat="0.00" departSpeed="0.00" departDelay="0.00" arrival="148.00" arrivalLane="edge4_1" arrivalPos="62.29" arrivalPosLat="0.00" arrivalSpeed="12.61" duration="40.00" routeLength="338.46" waitingTime="0.00" waitingCount="0" stopTime="0.00" timeLoss="15.26" rerouteNo="0" devices="tripinfo_flow0.12 ssm_flow0.12 fcd_flow0.12" vType="Civilian" speedFactor="1.01" vaporized=""/>
    <tripinfo id="flow0.9" depart="81.00" departLane="edge0_0" departPos="5.10" departPosLat="0.00" departSpeed="0.00" departDelay="0.00" arrival="149.00" arrivalLane="edge4_0" arrivalPos="62.29" arrivalPosLat="0.00" arrivalSpeed="9.95" duration="68.00" routeLength="338.46" waitingTime="24.00" waitingCount="1" stopTime="0.00" timeLoss="39.95" rerouteNo="0" devices="tripinfo_flow0.9 ssm_flow0.9 fcd_flow0.9" vType="Civilian" speedFactor="0.88" vaporized=""/>
    <tripinfo id="flow0.13" depart="117.00" departLane="edge0_0" departPos="5.10" departPosLat="0.00" departSpeed="0.00" departDelay="0.00" arrival="153.00" arrivalLane="edge4_0" arrivalPos="62.29" arrivalPosLat="0.00" arrivalSpeed="10.74" duration="36.00" routeLength="338.46" waitingTime="0.00" waitingCount="0" stopTime="0.00" timeLoss="8.17" rerouteNo="0" devices="tripinfo_flow0.13 ssm_flow0.13 fcd_flow0.13" vType="Civilian" speedFactor="0.89" vaporized=""/>
    <tripinfo id="flow1.8" depart="96.00" departLane="edge0_0" departPos="5.10" departPosLat="0.00" departSpeed="0.00" departDelay="0.00" arrival="157.00" arrivalLane="edge4_1" arrivalPos="62.29" arrivalPosLat="0.00" arrivalSpeed="14.12" duration="61.00" routeLength="437.64" waitingTime="16.00" waitingCount="1" stopTime="0.00" timeLoss="33.21" rerouteNo="2" devices="tripinfo_flow1.8 ssm_flow1.8 fcd_flow1.8" vType="C_Civilian" speedFactor="1.16" vaporized=""/>
    <tripinfo id="flow4.0" depart="120.00" departLane="edge8_0" departPos="10.10" departPosLat="0.00" departSpeed="0.00" departDelay="0.00" arrival="157.00" arrivalLane="edge11_0" arrivalPos="67.04" arrivalPosLat="0.00" arrivalSpeed="19.41" duration="37.00" routeLength="404.90" waitingTime="0.00" waitingCount="0" stopTime="0.00" timeLoss="16.86" rerouteNo="0" devices="tripinfo_flow4.0 ssm_flow4.0 bluelight_flow4.0 fcd_flow4.0" vType="C_ER" speedFactor="1.50" vaporized="">
        <bluelight/>
    </tripinfo>
    <tripinfo id="flow1.9" depart="111.00" departLane="edge0_0" departPos="5.10" departPosLat="0.00" departSpeed="0.00" departDelay="3.00" arrival="159.00" arrivalLane="edge4_1" arrivalPos="62.29" arrivalPosLat="0.00" arrivalSpeed="12.07" duration="48.00" routeLength="435.06" waitingTime="0.00" waitingCount="0" stopTime="0.00" timeLoss="15.13" rerouteNo="2" devices="tripinfo_flow1.9 ssm_flow1.9 fcd_flow1.9" vType="C_Civilian" speedFactor="0.98" vaporized=""/>
    <tripinfo id="flow1.10" depart="122.00" departLane="edge0_0" departPos="5.10" departPosLat="0.00" departSpeed="0.00" departDelay="2.00" arrival="172.00" arrivalLane="edge4_1" arrivalPos="62.29" arrivalPosLat="0.00" arrivalSpeed="11.45" duration="50.00" routeLength="435.06" waitingTime="0.00" waitingCount="0" stopTime="0.00" timeLoss="11.62" rerouteNo="3" devices="tripinfo_flow1.10 ssm_flow1.10 fcd_flow1.10" vType="C_Civilian" speedFactor="0.83" vaporized=""/>
    <tripinfo id="flow1.11" depart="132.00" departLane="edge0_0" departPos="5.10" departPosLat="0.00" departSpeed="0.00" departDelay="0.00" arrival="177.00" arrivalLane="edge4_1" arrivalPos="62.29" arrivalPosLat="0.00" arrivalSpeed="12.01" duration="45.00" routeLength="437.64" waitingTime="0.00" waitingCount="0" stopTime="0.00" timeLoss="10.03" rerouteNo="2" devices="tripinfo_flow1.11 ssm_flow1.11 fcd_flow1.11" vType="C_Civilian" speedFactor="0.92" vaporized=""/>
    <tripinfo id="flow1.12" depart="147.00" departLane="edge0_0" departPos="5.10" departPosLat="0.00" departSpeed="0.00" departDelay="3.00" arrival="193.00" arrivalLane="edge4_1" arrivalPos="62.29" arrivalPosLat="0.00" arrivalSpeed="12.84" duration="46.00" routeLength="435.06" waitingTime="0.00" waitingCount="0" stopTime="0.00" timeLoss="12.32" rerouteNo="1" devices="tripinfo_flow1.12 ssm_flow1.12 fcd_flow1.12" vType="C_Civilian" speedFactor="0.93" vaporized=""/>
    <tripinfo id="flow0.15" depart="136.00" departLane="edge0_0" departPos="5.10" departPosLat="0.00" departSpeed="0.00" departDelay="1.00" arrival="224.00" arrivalLane="edge4_1" arrivalPos="62.29" arrivalPosLat="0.00" arrivalSpeed="12.47" duration="88.00" routeLength="338.46" waitingTime="47.00" waitingCount="1" stopTime="0.00" timeLoss="61.74" rerouteNo="0" devices="tripinfo_flow0.15 ssm_flow0.15 fcd_flow0.15" vType="Civilian" speedFactor="0.95" vaporized=""/>
    <tripinfo id="flow0.14" depart="126.00" departLane="edge0_0" departPos="5.10" departPosLat="0.00" departSpeed="0.00" departDelay="0.00" arrival="225.00" arrivalLane="edge4_0" arrivalPos="62.29" arrivalPosLat="0.00" arrivalSpeed="10.06" duration="99.00" routeLength="338.46" waitingTime="58.00" waitingCount="2" stopTime="0.00" timeLoss="70.79" rerouteNo="0" devices="tripinfo_flow0.14 ssm_flow0.14 fcd_flow0.14" vType="Civilian" speedFactor="0.87" vaporized=""/>
    <tripinfo id="flow1.13" depart="156.00" departLane="edge0_0" departPos="5.10" departPosLat="0.00" departSpeed="0.00" departDelay="0.00" arrival="226.00" arrivalLane="edge4_1" arrivalPos="62.29" arrivalPosLat="0.00" arrivalSpeed="13.19" duration="70.00" routeLength="338.46" waitingTime="31.00" waitingCount="1" stopTime="0.00" timeLoss="48.20" rerouteNo="0" devices="tripinfo_flow1.13 ssm_flow1.13 fcd_flow1.13" vType="C_Civilian" speedFactor="1.15" vaporized=""/>
    <tripinfo id="flow0.16" depart="144.00" departLane="edge0_0" departPos="5.10" departPosLat="0.00" departSpeed="0.00" departDelay="0.00" arrival="227.00" arrivalLane="edge4_0" arrivalPos="62.29" arrivalPosLat="0.00" arrivalSpeed="14.54" duration="83.00" routeLength="338.46" waitingTime="43.00" waitingCount="2" stopTime="0.00" timeLoss="60.87" rerouteNo="0" devices="tripinfo_flow0.16 ssm_flow0.16 fcd_flow0.16" vType="Civilian" speedFactor="1.13" vaporized=""/>
    <tripinfo id="flow0.18" depart="162.00" departLane="edge0_0" departPos="5.10" departPosLat="0.00" departSpeed="0.00" departDelay="0.00" arrival="228.00" arrivalLane="edge4_1" arrivalPos="62.29" arrivalPosLat="0.00" arrivalSpeed="12.33" duration="66.00" routeLength="338.46" waitingTime="27.00" waitingCount="2" stopTime="0.00" timeLoss="41.58" rerouteNo="0" devices="tripinfo_flow0.18 ssm_flow0.18 fcd_flow0.18" vType="Civilian" speedFactor="1.01" vaporized=""/>
    <tripinfo id="flow0.17" depart="153.00" departLane="edge0_0" departPos="5.10" departPosLat="0.00" departSpeed="0.00" departDelay="0.00" arrival="229.00" arrivalLane="edge4_0" arrivalPos="62.29" arrivalPosLat="0.00" arrivalSpeed="14.92" duration="76.00" routeLength="338.46" waitingTime="38.00" waitingCount="2" stopTime="0.00" timeLoss="54.66" rerouteNo="0" devices="tripinfo_flow0.17 ssm_flow0.17 fcd_flow0.17" vType="Civilian" speedFactor="1.18" vaporized=""/>
    <tripinfo id="flow1.14" depart="168.00" departLane="edge0_0" departPos="5.10" departPosLat="0.00" departSpeed="0.00" departDelay="0.00" arrival="230.00" arrivalLane="edge4_1" arrivalPos="62.29" arrivalPosLat="0.00" arrivalSpeed="14.61" duration="62.00" routeLength="338.46" waitingTime="23.00" waitingCount="2" stopTime="0.00" timeLoss="41.09" rerouteNo="0" devices="tripinfo_flow1.14 ssm_flow1.14 fcd_flow1.14" vType="C_Civilian" speedFactor="1.17" vaporized=""/>
    <tripinfo id="flow0.20" depart="180.00" departLane="edge0_0" departPos="5.10" departPosLat="0.00" departSpeed="0.00" departDelay="0.00" arrival="231.00" arrivalLane="edge4_0" arrivalPos="62.29" arrivalPosLat="0.00" arrivalSpeed="13.22" duration="51.00" routeLength="338.46" waitingTime="13.00" waitingCount="1" stopTime="0.00" timeLoss="26.63" rerouteNo="0" devices="tripinfo_flow0.20 ssm_flow0.20 fcd_flow0.20" vType="Civilian" speedFactor="1.02" vaporized=""/>
    <tripinfo id="flow1.15" depart="183.00" departLane="edge0_0" departPos="5.10" departPosLat="0.00" departSpeed="0.00" departDelay="3.00" arrival="233.00" arrivalLane="edge4_0" arrivalPos="62.29" arrivalPosLat="0.00" arrivalSpeed="12.70" duration="50.00" routeLength="338.46" waitingTime="9.00" waitingCount="3" stopTime="0.00" timeLoss="24.85" rerouteNo="0" devices="tripinfo_flow1.15 ssm_flow1.15 fcd_flow1.15" vType="C_Civilian" speedFactor="0.97" vaporized=""/>
    <tripinfo id="flow0.19" depart="171.00" departLane="edge0_0" departPos="5.10" departPosLat="0.00" departSpeed="0.00" departDelay="0.00" arrival="234.00" arrivalLane="edge4_1" arrivalPos="62.29" arrivalPosLat="0.00" arrivalSpeed="13.13" duration="63.00" routeLength="338.46" waitingTime="19.00" waitingCount="1" stopTime="0.00" timeLoss="38.34" rerouteNo="0" devices="tripinfo_flow0.19 ssm_flow0.19 fcd_flow0.19" vType="Civilian" speedFactor="0.99" vaporized=""/>
    <tripinfo id="flow0.21" depart="189.00" departLane="edge0_0" departPos="5.10" departPosLat="0.00" departSpeed="0.00" departDelay="0.00" arrival="235.00" arrivalLane="edge4_0" arrivalPos="62.29" arrivalPosLat="0.00" arrivalSpeed="14.96" duration="46.00" routeLength="338.46" waitingTime="5.00" waitingCount="1" stopTime="0.00" timeLoss="24.94" rerouteNo="0" devices="tripinfo_flow0.21 ssm_flow0.21 fcd_flow0.21" vType="Civilian" speedFactor="1.18" vaporized=""/>
    <tripinfo id="flow1.16" depart="192.00" departLane="edge0_0" departPos="5.10" departPosLat="0.00" departSpeed="0.00" departDelay="0.00" arrival="237.00" arrivalLane="edge4_1" arrivalPos="62.29" arrivalPosLat="0.00" arrivalSpeed="14.58" duration="45.00" routeLength="338.46" waitingTime="4.00" waitingCount="2" stopTime="0.00" timeLoss="22.32" rerouteNo="0" devices="tripinfo_flow1.16 ssm_flow1.16 fcd_flow1.16" vType="C_Civilian" speedFactor="1.10" vaporized=""/>
    <tripinfo id="flow1.17" depart="204.00" departLane="edge0_0" departPos="5.10" departPosLat="0.00" departSpeed="0.00" departDelay="0.00" arrival="237.00" arrivalLane="edge4_0" arrivalPos="62.29" arrivalPosLat="0.00" arrivalSpeed="11.96" duration="33.00" routeLength="338.46" waitingTime="0.00" waitingCount="0" stopTime="0.00" timeLoss="9.18" rerouteNo="0" devices="tripinfo_flow1.17 ssm_flow1.17 fcd_flow1.17" vType="C_Civilian" speedFactor="1.03" vaporized=""/>
    <tripinfo id="flow0.22" depart="198.00" departLane="edge0_0" departPos="5.10" departPosLat="0.00" departSpeed="0.00" departDelay="0.00" arrival="241.00" arrivalLane="edge4_1" arrivalPos="62.29" arrivalPosLat="0.00" arrivalSpeed="10.48" duration="43.00" routeLength="338.46" waitingTime="1.00" waitingCount="1" stopTime="0.00" timeLoss="15.61" rerouteNo="0" devices="tripinfo_flow0.22 ssm_flow0.22 fcd_flow0.22" vType="Civilian" speedFactor="0.90" vaporized=""/>
    <tripinfo id="flow0.23" depart="207.00" departLane="edge0_0" departPos="5.10" departPosLat="0.00" departSpeed="0.00" departDelay="0.00" arrival="243.00" arrivalLane="edge4_0" arrivalPos="62.29" arrivalPosLat="0.00" arrivalSpeed="11.85" duration="36.00" routeLength="338.46" waitingTime="0.00" waitingCount="0" stopTime="0.00" timeLoss="10.08" rerouteNo="0" devices="tripinfo_flow0.23 ssm_flow0.23 fcd_flow0.23" vType="Civilian" speedFactor="0.96" vaporized=""/>
    <tripinfo id="flow0.24" depart="216.00" departLane="edge0_0" departPos="5.10" departPosLat="0.00" departSpeed="0.00" departDelay="0.00" arrival="245.00" arrivalLane="edge4_0" arrivalPos="62.29" arrivalPosLat="0.00" arrivalSpeed="14.52" duration="29.00" routeLength="338.46" waitingTime="0.00" waitingCount="0" stopTime="0.00" timeLoss="6.25" rerouteNo="0" devices="tripinfo_flow0.24 ssm_flow0.24 fcd_flow0.24" vType="Civilian" speedFactor="1.09" vaporized=""/>
</tripinfos>
